<?xml version="1.0" encoding="UTF-8"?>

<!-- generated on Mon Nov 25 11:26:34 2019 by Eclipse SUMO Version v1_3_1+0234-c526b02090
<configuration xmlns:xsi="http://www.w3.org/2001/XMLSchema-instance" xsi:noNamespaceSchemaLocation="http://sumo.dlr.de/xsd/sumoConfiguration.xsd">

    <input>
        <net-file value="/user/d704e19/experiments/AAUP7/SUMOfiles/SmartRoute/MasterNetFile20.net.xml"/>
        <route-files value="/user/d704e19/experiments/AAUP7/SUMOfiles/SmartRoute/trip5000-2000-2.rou.xml"/>
    </input>

    <output>
        <emission-output value="results/emission4019.xml"/>
        <queue-output value="results/queueinfo4019.xml"/>
        <tripinfo-output value="results/tripinfo4019.xml"/>
    </output>

    <time>
        <begin value="0"/>
    </time>

    <report>
        <verbose value="true"/>
        <no-step-log value="true"/>
    </report>

    <traci_server>
        <remote-port value="55880"/>
    </traci_server>

</configuration>
-->

<tripinfos xmlns:xsi="http://www.w3.org/2001/XMLSchema-instance" xsi:noNamespaceSchemaLocation="http://sumo.dlr.de/xsd/tripinfo_file.xsd">
    <tripinfo id="1" depart="0.00" departLane="n20-n4_0" departPos="5.10" departSpeed="0.00" departDelay="0.00" arrival="90.00" arrivalLane="n54-n19_0" arrivalPos="296.00" arrivalSpeed="14.94" duration="90.00" routeLength="980.46" waitingTime="10.00" waitingCount="1" stopTime="0.00" timeLoss="23.21" rerouteNo="1" devices="tripinfo_1 routing_1" vType="DEFAULT_VEHTYPE" speedFactor="0.94" vaporized=""/>
    <tripinfo id="8" depart="3.00" departLane="n20-n4_0" departPos="5.10" departSpeed="0.00" departDelay="1.00" arrival="93.00" arrivalLane="n54-n19_0" arrivalPos="296.00" arrivalSpeed="14.29" duration="90.00" routeLength="980.46" waitingTime="6.00" waitingCount="1" stopTime="0.00" timeLoss="21.80" rerouteNo="1" devices="tripinfo_8 routing_8" vType="DEFAULT_VEHTYPE" speedFactor="0.94" vaporized=""/>
    <tripinfo id="18" depart="5.00" departLane="n36-n24_0" departPos="5.10" departSpeed="0.00" departDelay="0.00" arrival="94.00" arrivalLane="n4-n20_0" arrivalPos="392.80" arrivalSpeed="13.69" duration="89.00" routeLength="1189.53" waitingTime="0.00" waitingCount="0" stopTime="0.00" timeLoss="9.01" rerouteNo="1" devices="tripinfo_18 routing_18" vType="DEFAULT_VEHTYPE" speedFactor="0.94" vaporized=""/>
    <tripinfo id="39" depart="15.00" departLane="n44-n32_0" departPos="5.10" departSpeed="0.00" departDelay="2.00" arrival="94.00" arrivalLane="n33-n39_0" arrivalPos="392.80" arrivalSpeed="14.08" duration="79.00" routeLength="989.53" waitingTime="0.00" waitingCount="0" stopTime="0.00" timeLoss="9.23" rerouteNo="1" devices="tripinfo_39 routing_39" vType="DEFAULT_VEHTYPE" speedFactor="0.90" vaporized=""/>
    <tripinfo id="0" depart="0.00" departLane="n27-n51_0" departPos="5.10" departSpeed="0.00" departDelay="0.00" arrival="97.00" arrivalLane="n9-n25_0" arrivalPos="392.80" arrivalSpeed="15.95" duration="97.00" routeLength="994.06" waitingTime="18.00" waitingCount="1" stopTime="0.00" timeLoss="36.22" rerouteNo="1" devices="tripinfo_0 routing_0" vType="DEFAULT_VEHTYPE" speedFactor="1.06" vaporized=""/>
    <tripinfo id="6" depart="1.00" departLane="n43-n57_0" departPos="5.10" departSpeed="0.00" departDelay="0.00" arrival="98.00" arrivalLane="n51-n27_0" arrivalPos="296.00" arrivalSpeed="15.81" duration="97.00" routeLength="1395.60" waitingTime="1.00" waitingCount="1" stopTime="0.00" timeLoss="12.79" rerouteNo="1" devices="tripinfo_6 routing_6" vType="DEFAULT_VEHTYPE" speedFactor="1.05" vaporized=""/>
    <tripinfo id="41" depart="15.00" departLane="n43-n57_0" departPos="5.10" departSpeed="0.00" departDelay="1.00" arrival="99.00" arrivalLane="n32-n44_0" arrivalPos="392.80" arrivalSpeed="15.13" duration="84.00" routeLength="978.30" waitingTime="4.00" waitingCount="1" stopTime="0.00" timeLoss="19.04" rerouteNo="1" devices="tripinfo_41 routing_41" vType="DEFAULT_VEHTYPE" speedFactor="0.96" vaporized=""/>
    <tripinfo id="81" depart="28.00" departLane="n21-n1_0" departPos="5.10" departSpeed="0.00" departDelay="0.00" arrival="99.00" arrivalLane="n2-n18_0" arrivalPos="392.80" arrivalSpeed="15.96" duration="71.00" routeLength="994.69" waitingTime="0.00" waitingCount="0" stopTime="0.00" timeLoss="7.80" rerouteNo="1" devices="tripinfo_81 routing_81" vType="DEFAULT_VEHTYPE" speedFactor="1.00" vaporized=""/>
    <tripinfo id="20" depart="7.00" departLane="n21-n1_0" departPos="5.10" departSpeed="0.00" departDelay="0.00" arrival="102.00" arrivalLane="n54-n19_1" arrivalPos="296.00" arrivalSpeed="15.85" duration="95.00" routeLength="1193.72" waitingTime="7.00" waitingCount="1" stopTime="0.00" timeLoss="20.13" rerouteNo="1" devices="tripinfo_20 routing_20" vType="DEFAULT_VEHTYPE" speedFactor="1.02" vaporized=""/>
    <tripinfo id="72" depart="25.00" departLane="n20-n4_0" departPos="5.10" departSpeed="0.00" departDelay="0.00" arrival="102.00" arrivalLane="n54-n19_0" arrivalPos="296.00" arrivalSpeed="14.46" duration="77.00" routeLength="980.46" waitingTime="0.00" waitingCount="0" stopTime="0.00" timeLoss="10.24" rerouteNo="1" devices="tripinfo_72 routing_72" vType="DEFAULT_VEHTYPE" speedFactor="0.94" vaporized=""/>
    <tripinfo id="89" depart="35.00" departLane="n27-n51_0" departPos="5.10" departSpeed="0.00" departDelay="3.00" arrival="104.00" arrivalLane="n29-n41_0" arrivalPos="392.80" arrivalSpeed="15.24" duration="69.00" routeLength="983.67" waitingTime="0.00" waitingCount="0" stopTime="0.00" timeLoss="7.59" rerouteNo="1" devices="tripinfo_89 routing_89" vType="DEFAULT_VEHTYPE" speedFactor="1.02" vaporized=""/>
    <tripinfo id="36" depart="13.00" departLane="n21-n1_0" departPos="5.10" departSpeed="0.00" departDelay="1.00" arrival="105.00" arrivalLane="n54-n19_1" arrivalPos="296.00" arrivalSpeed="14.63" duration="92.00" routeLength="1193.72" waitingTime="2.00" waitingCount="1" stopTime="0.00" timeLoss="13.94" rerouteNo="1" devices="tripinfo_36 routing_36" vType="DEFAULT_VEHTYPE" speedFactor="0.97" vaporized=""/>
    <tripinfo id="33" depart="13.00" departLane="n19-n54_0" departPos="5.10" departSpeed="0.00" departDelay="2.00" arrival="108.00" arrivalLane="n57-n43_0" arrivalPos="296.00" arrivalSpeed="17.91" duration="95.00" routeLength="1600.71" waitingTime="0.00" waitingCount="0" stopTime="0.00" timeLoss="9.20" rerouteNo="1" devices="tripinfo_33 routing_33" vType="DEFAULT_VEHTYPE" speedFactor="1.17" vaporized=""/>
    <tripinfo id="34" depart="12.00" departLane="n39-n33_0" departPos="5.10" departSpeed="0.00" departDelay="0.00" arrival="108.00" arrivalLane="n32-n44_0" arrivalPos="392.80" arrivalSpeed="15.38" duration="96.00" routeLength="994.69" waitingTime="7.00" waitingCount="2" stopTime="0.00" timeLoss="32.36" rerouteNo="1" devices="tripinfo_34 routing_34" vType="DEFAULT_VEHTYPE" speedFactor="0.99" vaporized=""/>
    <tripinfo id="30" depart="10.00" departLane="n36-n24_0" departPos="5.10" departSpeed="0.00" departDelay="0.00" arrival="110.00" arrivalLane="n33-n39_0" arrivalPos="392.80" arrivalSpeed="18.01" duration="100.00" routeLength="1394.48" waitingTime="3.00" waitingCount="1" stopTime="0.00" timeLoss="23.79" rerouteNo="1" devices="tripinfo_30 routing_30" vType="DEFAULT_VEHTYPE" speedFactor="1.18" vaporized=""/>
    <tripinfo id="19" depart="9.00" departLane="n20-n4_0" departPos="5.10" departSpeed="0.00" departDelay="4.00" arrival="113.00" arrivalLane="n26-n37_0" arrivalPos="392.80" arrivalSpeed="18.06" duration="104.00" routeLength="1394.69" waitingTime="4.00" waitingCount="1" stopTime="0.00" timeLoss="27.77" rerouteNo="1" devices="tripinfo_19 routing_19" vType="DEFAULT_VEHTYPE" speedFactor="1.16" vaporized=""/>
    <tripinfo id="118" depart="45.00" departLane="n23-n5_0" departPos="5.10" departSpeed="0.00" departDelay="0.00" arrival="117.00" arrivalLane="n1-n17_0" arrivalPos="392.80" arrivalSpeed="15.72" duration="72.00" routeLength="994.69" waitingTime="0.00" waitingCount="0" stopTime="0.00" timeLoss="8.30" rerouteNo="1" devices="tripinfo_118 routing_118" vType="DEFAULT_VEHTYPE" speedFactor="0.99" vaporized=""/>
    <tripinfo id="80" depart="45.00" departLane="n43-n57_0" departPos="5.10" departSpeed="0.00" departDelay="17.00" arrival="118.00" arrivalLane="n30-n42_0" arrivalPos="392.80" arrivalSpeed="16.47" duration="73.00" routeLength="994.06" waitingTime="0.00" waitingCount="0" stopTime="0.00" timeLoss="11.02" rerouteNo="1" devices="tripinfo_80 routing_80" vType="DEFAULT_VEHTYPE" speedFactor="1.03" vaporized=""/>
    <tripinfo id="85" depart="48.00" departLane="n43-n57_0" departPos="5.10" departSpeed="0.00" departDelay="19.00" arrival="123.00" arrivalLane="n32-n44_0" arrivalPos="392.80" arrivalSpeed="15.19" duration="75.00" routeLength="978.30" waitingTime="0.00" waitingCount="0" stopTime="0.00" timeLoss="10.65" rerouteNo="1" devices="tripinfo_85 routing_85" vType="DEFAULT_VEHTYPE" speedFactor="0.98" vaporized=""/>
    <tripinfo id="116" depart="54.00" departLane="n43-n57_0" departPos="5.10" departSpeed="0.00" departDelay="13.00" arrival="125.00" arrivalLane="n32-n44_0" arrivalPos="392.80" arrivalSpeed="18.14" duration="71.00" routeLength="978.30" waitingTime="0.00" waitingCount="0" stopTime="0.00" timeLoss="17.08" rerouteNo="1" devices="tripinfo_116 routing_116" vType="DEFAULT_VEHTYPE" speedFactor="1.18" vaporized=""/>
    <tripinfo id="4" depart="3.00" departLane="n19-n54_0" departPos="5.10" departSpeed="0.00" departDelay="2.00" arrival="126.00" arrivalLane="n51-n27_0" arrivalPos="296.00" arrivalSpeed="15.50" duration="123.00" routeLength="1782.50" waitingTime="0.00" waitingCount="0" stopTime="0.00" timeLoss="13.39" rerouteNo="1" devices="tripinfo_4 routing_4" vType="DEFAULT_VEHTYPE" speedFactor="1.03" vaporized=""/>
    <tripinfo id="2" depart="0.00" departLane="n19-n54_0" departPos="5.10" departSpeed="0.00" departDelay="0.00" arrival="127.00" arrivalLane="n53-n38_0" arrivalPos="296.00" arrivalSpeed="15.42" duration="127.00" routeLength="1797.60" waitingTime="0.00" waitingCount="0" stopTime="0.00" timeLoss="14.19" rerouteNo="1" devices="tripinfo_2 routing_2" vType="DEFAULT_VEHTYPE" speedFactor="1.01" vaporized=""/>
    <tripinfo id="10" depart="6.00" departLane="n20-n4_0" departPos="5.10" departSpeed="0.00" departDelay="3.00" arrival="127.00" arrivalLane="n1-n17_0" arrivalPos="392.80" arrivalSpeed="16.52" duration="121.00" routeLength="1384.16" waitingTime="11.00" waitingCount="2" stopTime="0.00" timeLoss="40.13" rerouteNo="1" devices="tripinfo_10 routing_10" vType="DEFAULT_VEHTYPE" speedFactor="1.09" vaporized=""/>
    <tripinfo id="126" depart="51.00" departLane="n45-n33_0" departPos="5.10" departSpeed="0.00" departDelay="0.00" arrival="127.00" arrivalLane="n32-n44_0" arrivalPos="392.80" arrivalSpeed="16.34" duration="76.00" routeLength="994.48" waitingTime="0.00" waitingCount="0" stopTime="0.00" timeLoss="13.56" rerouteNo="1" devices="tripinfo_126 routing_126" vType="DEFAULT_VEHTYPE" speedFactor="1.03" vaporized=""/>
    <tripinfo id="68" depart="33.00" departLane="n43-n57_0" departPos="5.10" departSpeed="0.00" departDelay="10.00" arrival="129.00" arrivalLane="n33-n39_0" arrivalPos="392.80" arrivalSpeed="16.09" duration="96.00" routeLength="1183.67" waitingTime="9.00" waitingCount="1" stopTime="0.00" timeLoss="24.24" rerouteNo="1" devices="tripinfo_68 routing_68" vType="DEFAULT_VEHTYPE" speedFactor="1.04" vaporized=""/>
    <tripinfo id="62" depart="21.00" departLane="n23-n5_0" departPos="5.10" departSpeed="0.00" departDelay="0.00" arrival="130.00" arrivalLane="n24-n36_0" arrivalPos="392.80" arrivalSpeed="15.55" duration="109.00" routeLength="1594.90" waitingTime="0.00" waitingCount="0" stopTime="0.00" timeLoss="10.84" rerouteNo="1" devices="tripinfo_62 routing_62" vType="DEFAULT_VEHTYPE" speedFactor="1.02" vaporized=""/>
    <tripinfo id="63" depart="27.00" departLane="n43-n57_0" departPos="5.10" departSpeed="0.00" departDelay="6.00" arrival="130.00" arrivalLane="n33-n45_0" arrivalPos="392.80" arrivalSpeed="14.59" duration="103.00" routeLength="1178.30" waitingTime="10.00" waitingCount="1" stopTime="0.00" timeLoss="25.81" rerouteNo="1" devices="tripinfo_63 routing_63" vType="DEFAULT_VEHTYPE" speedFactor="0.99" vaporized=""/>
    <tripinfo id="25" depart="9.00" departLane="n17-n1_0" departPos="5.10" departSpeed="0.00" departDelay="0.00" arrival="131.00" arrivalLane="n5-n23_0" arrivalPos="392.80" arrivalSpeed="13.23" duration="122.00" routeLength="989.53" waitingTime="38.00" waitingCount="1" stopTime="0.00" timeLoss="50.31" rerouteNo="1" devices="tripinfo_25 routing_25" vType="DEFAULT_VEHTYPE" speedFactor="0.87" vaporized=""/>
    <tripinfo id="69" depart="36.00" departLane="n43-n57_0" departPos="5.10" departSpeed="0.00" departDelay="12.00" arrival="131.00" arrivalLane="n53-n38_1" arrivalPos="296.00" arrivalSpeed="15.11" duration="95.00" routeLength="1380.50" waitingTime="0.00" waitingCount="0" stopTime="0.00" timeLoss="9.86" rerouteNo="1" devices="tripinfo_69 routing_69" vType="DEFAULT_VEHTYPE" speedFactor="1.02" vaporized=""/>
    <tripinfo id="113" depart="40.00" departLane="n41-n29_0" departPos="5.10" departSpeed="0.00" departDelay="0.00" arrival="131.00" arrivalLane="n57-n43_0" arrivalPos="296.00" arrivalSpeed="15.07" duration="91.00" routeLength="1180.46" waitingTime="0.00" waitingCount="0" stopTime="0.00" timeLoss="16.35" rerouteNo="1" devices="tripinfo_113 routing_113" vType="DEFAULT_VEHTYPE" speedFactor="1.01" vaporized=""/>
    <tripinfo id="48" depart="25.00" departLane="n19-n54_0" departPos="5.10" departSpeed="0.00" departDelay="9.00" arrival="132.00" arrivalLane="n2-n18_0" arrivalPos="392.80" arrivalSpeed="13.31" duration="107.00" routeLength="978.30" waitingTime="20.00" waitingCount="1" stopTime="0.00" timeLoss="34.87" rerouteNo="1" devices="tripinfo_48 routing_48" vType="DEFAULT_VEHTYPE" speedFactor="0.88" vaporized=""/>
    <tripinfo id="122" depart="47.00" departLane="n44-n32_0" departPos="5.10" departSpeed="0.00" departDelay="0.00" arrival="132.00" arrivalLane="n33-n39_0" arrivalPos="392.80" arrivalSpeed="16.41" duration="85.00" routeLength="989.53" waitingTime="8.00" waitingCount="1" stopTime="0.00" timeLoss="23.60" rerouteNo="1" devices="tripinfo_122 routing_122" vType="DEFAULT_VEHTYPE" speedFactor="1.03" vaporized=""/>
    <tripinfo id="70" depart="25.00" departLane="n44-n32_0" departPos="5.10" departSpeed="0.00" departDelay="0.00" arrival="133.00" arrivalLane="n57-n43_1" arrivalPos="296.00" arrivalSpeed="15.83" duration="108.00" routeLength="993.51" waitingTime="28.00" waitingCount="2" stopTime="0.00" timeLoss="44.89" rerouteNo="1" devices="tripinfo_70 routing_70" vType="DEFAULT_VEHTYPE" speedFactor="1.02" vaporized=""/>
    <tripinfo id="53" depart="18.00" departLane="n27-n51_0" departPos="5.10" departSpeed="0.00" departDelay="0.00" arrival="134.00" arrivalLane="n53-n38_1" arrivalPos="296.00" arrivalSpeed="16.26" duration="116.00" routeLength="1600.71" waitingTime="7.00" waitingCount="1" stopTime="0.00" timeLoss="24.66" rerouteNo="1" devices="tripinfo_53 routing_53" vType="DEFAULT_VEHTYPE" speedFactor="1.10" vaporized=""/>
    <tripinfo id="107" depart="40.00" departLane="n23-n5_0" departPos="5.10" departSpeed="0.00" departDelay="3.00" arrival="134.00" arrivalLane="n54-n19_0" arrivalPos="296.00" arrivalSpeed="16.41" duration="94.00" routeLength="1394.72" waitingTime="0.00" waitingCount="0" stopTime="0.00" timeLoss="8.43" rerouteNo="1" devices="tripinfo_107 routing_107" vType="DEFAULT_VEHTYPE" speedFactor="1.03" vaporized=""/>
    <tripinfo id="101" depart="35.00" departLane="n44-n32_0" departPos="5.10" departSpeed="0.00" departDelay="0.00" arrival="136.00" arrivalLane="n57-n43_0" arrivalPos="296.00" arrivalSpeed="14.14" duration="101.00" routeLength="993.51" waitingTime="14.00" waitingCount="2" stopTime="0.00" timeLoss="33.83" rerouteNo="1" devices="tripinfo_101 routing_101" vType="DEFAULT_VEHTYPE" speedFactor="0.96" vaporized=""/>
    <tripinfo id="82" depart="28.00" departLane="n38-n53_0" departPos="5.10" departSpeed="0.00" departDelay="0.00" arrival="137.00" arrivalLane="n22-n34_0" arrivalPos="392.80" arrivalSpeed="15.76" duration="109.00" routeLength="1383.67" waitingTime="8.00" waitingCount="1" stopTime="0.00" timeLoss="23.00" rerouteNo="1" devices="tripinfo_82 routing_82" vType="DEFAULT_VEHTYPE" speedFactor="1.02" vaporized=""/>
    <tripinfo id="24" depart="9.00" departLane="n43-n57_0" departPos="5.10" departSpeed="0.00" departDelay="0.00" arrival="138.00" arrivalLane="n53-n38_0" arrivalPos="296.00" arrivalSpeed="12.18" duration="129.00" routeLength="1380.50" waitingTime="6.00" waitingCount="1" stopTime="0.00" timeLoss="22.41" rerouteNo="1" devices="tripinfo_24 routing_24" vType="DEFAULT_VEHTYPE" speedFactor="0.83" vaporized=""/>
    <tripinfo id="128" depart="51.00" departLane="n36-n24_0" departPos="5.10" departSpeed="0.00" departDelay="0.00" arrival="139.00" arrivalLane="n54-n19_0" arrivalPos="296.00" arrivalSpeed="17.82" duration="88.00" routeLength="1386.83" waitingTime="0.00" waitingCount="0" stopTime="0.00" timeLoss="9.38" rerouteNo="1" devices="tripinfo_128 routing_128" vType="DEFAULT_VEHTYPE" speedFactor="1.12" vaporized=""/>
    <tripinfo id="105" depart="37.00" departLane="n23-n5_0" departPos="5.10" departSpeed="0.00" departDelay="0.00" arrival="140.00" arrivalLane="n51-n27_1" arrivalPos="296.00" arrivalSpeed="16.46" duration="103.00" routeLength="1180.46" waitingTime="15.00" waitingCount="1" stopTime="0.00" timeLoss="32.04" rerouteNo="1" devices="tripinfo_105 routing_105" vType="DEFAULT_VEHTYPE" speedFactor="1.07" vaporized=""/>
    <tripinfo id="5" depart="6.00" departLane="n27-n51_0" departPos="5.10" departSpeed="0.00" departDelay="5.00" arrival="141.00" arrivalLane="n5-n23_0" arrivalPos="392.80" arrivalSpeed="12.19" duration="135.00" routeLength="1194.06" waitingTime="21.00" waitingCount="2" stopTime="0.00" timeLoss="42.54" rerouteNo="1" devices="tripinfo_5 routing_5" vType="DEFAULT_VEHTYPE" speedFactor="0.83" vaporized=""/>
    <tripinfo id="28" depart="10.00" departLane="n21-n1_0" departPos="5.10" departSpeed="0.00" departDelay="1.00" arrival="141.00" arrivalLane="n51-n27_1" arrivalPos="296.00" arrivalSpeed="16.99" duration="131.00" routeLength="1380.46" waitingTime="31.00" waitingCount="1" stopTime="0.00" timeLoss="52.52" rerouteNo="1" devices="tripinfo_28 routing_28" vType="DEFAULT_VEHTYPE" speedFactor="1.13" vaporized=""/>
    <tripinfo id="67" depart="23.00" departLane="n25-n9_0" departPos="5.10" departSpeed="0.00" departDelay="0.00" arrival="141.00" arrivalLane="n51-n27_0" arrivalPos="296.00" arrivalSpeed="14.30" duration="118.00" routeLength="980.46" waitingTime="34.00" waitingCount="1" stopTime="0.00" timeLoss="49.08" rerouteNo="1" devices="tripinfo_67 routing_67" vType="DEFAULT_VEHTYPE" speedFactor="0.91" vaporized=""/>
    <tripinfo id="55" depart="19.00" departLane="n45-n33_0" departPos="5.10" departSpeed="0.00" departDelay="0.00" arrival="142.00" arrivalLane="n57-n43_1" arrivalPos="296.00" arrivalSpeed="14.85" duration="123.00" routeLength="1193.51" waitingTime="25.00" waitingCount="1" stopTime="0.00" timeLoss="45.82" rerouteNo="1" devices="tripinfo_55 routing_55" vType="DEFAULT_VEHTYPE" speedFactor="1.00" vaporized=""/>
    <tripinfo id="60" depart="21.00" departLane="n27-n51_0" departPos="5.10" departSpeed="0.00" departDelay="0.00" arrival="142.00" arrivalLane="n5-n23_0" arrivalPos="392.80" arrivalSpeed="15.72" duration="121.00" routeLength="1194.06" waitingTime="17.00" waitingCount="2" stopTime="0.00" timeLoss="50.33" rerouteNo="1" devices="tripinfo_60 routing_60" vType="DEFAULT_VEHTYPE" speedFactor="1.08" vaporized=""/>
    <tripinfo id="31" depart="10.00" departLane="n19-n54_0" departPos="5.10" departSpeed="0.00" departDelay="0.00" arrival="143.00" arrivalLane="n33-n39_0" arrivalPos="392.80" arrivalSpeed="17.94" duration="133.00" routeLength="1999.08" waitingTime="8.00" waitingCount="1" stopTime="0.00" timeLoss="23.95" rerouteNo="1" devices="tripinfo_31 routing_31" vType="DEFAULT_VEHTYPE" speedFactor="1.15" vaporized=""/>
    <tripinfo id="157" depart="60.00" departLane="n45-n33_0" departPos="5.10" departSpeed="0.00" departDelay="0.00" arrival="143.00" arrivalLane="n57-n43_1" arrivalPos="296.00" arrivalSpeed="17.05" duration="83.00" routeLength="1193.51" waitingTime="0.00" waitingCount="0" stopTime="0.00" timeLoss="11.54" rerouteNo="1" devices="tripinfo_157 routing_157" vType="DEFAULT_VEHTYPE" speedFactor="1.08" vaporized=""/>
    <tripinfo id="3" depart="3.00" departLane="n27-n51_0" departPos="5.10" departSpeed="0.00" departDelay="3.00" arrival="147.00" arrivalLane="n57-n43_0" arrivalPos="296.00" arrivalSpeed="16.04" duration="144.00" routeLength="1380.50" waitingTime="42.00" waitingCount="2" stopTime="0.00" timeLoss="63.65" rerouteNo="1" devices="tripinfo_3 routing_3" vType="DEFAULT_VEHTYPE" speedFactor="1.08" vaporized=""/>
    <tripinfo id="83" depart="29.00" departLane="n44-n32_0" departPos="5.10" departSpeed="0.00" departDelay="0.00" arrival="148.00" arrivalLane="n24-n36_0" arrivalPos="392.80" arrivalSpeed="14.59" duration="119.00" routeLength="1589.53" waitingTime="0.00" waitingCount="0" stopTime="0.00" timeLoss="14.50" rerouteNo="1" devices="tripinfo_83 routing_83" vType="DEFAULT_VEHTYPE" speedFactor="0.97" vaporized=""/>
    <tripinfo id="40" depart="19.00" departLane="n19-n54_0" departPos="5.10" departSpeed="0.00" departDelay="6.00" arrival="149.00" arrivalLane="n57-n43_1" arrivalPos="296.00" arrivalSpeed="16.21" duration="130.00" routeLength="1600.71" waitingTime="4.00" waitingCount="2" stopTime="0.00" timeLoss="32.06" rerouteNo="1" devices="tripinfo_40 routing_40" vType="DEFAULT_VEHTYPE" speedFactor="1.03" vaporized=""/>
    <tripinfo id="57" depart="20.00" departLane="n39-n33_0" departPos="5.10" departSpeed="0.00" departDelay="0.00" arrival="149.00" arrivalLane="n53-n38_0" arrivalPos="296.00" arrivalSpeed="17.46" duration="129.00" routeLength="980.46" waitingTime="44.00" waitingCount="2" stopTime="0.00" timeLoss="73.18" rerouteNo="1" devices="tripinfo_57 routing_57" vType="DEFAULT_VEHTYPE" speedFactor="1.14" vaporized=""/>
    <tripinfo id="64" depart="22.00" departLane="n41-n29_0" departPos="5.10" departSpeed="0.00" departDelay="0.00" arrival="149.00" arrivalLane="n32-n44_0" arrivalPos="392.80" arrivalSpeed="14.41" duration="127.00" routeLength="1384.16" waitingTime="11.00" waitingCount="2" stopTime="0.00" timeLoss="32.67" rerouteNo="1" devices="tripinfo_64 routing_64" vType="DEFAULT_VEHTYPE" speedFactor="0.94" vaporized=""/>
    <tripinfo id="94" depart="38.00" departLane="n27-n51_0" departPos="5.10" departSpeed="0.00" departDelay="4.00" arrival="149.00" arrivalLane="n57-n43_0" arrivalPos="296.00" arrivalSpeed="17.12" duration="111.00" routeLength="1380.50" waitingTime="4.00" waitingCount="1" stopTime="0.00" timeLoss="31.07" rerouteNo="1" devices="tripinfo_94 routing_94" vType="DEFAULT_VEHTYPE" speedFactor="1.09" vaporized=""/>
    <tripinfo id="13" depart="4.00" departLane="n43-n57_0" departPos="5.10" departSpeed="0.00" departDelay="1.00" arrival="150.00" arrivalLane="n22-n35_0" arrivalPos="392.80" arrivalSpeed="16.84" duration="146.00" routeLength="1988.48" waitingTime="13.00" waitingCount="1" stopTime="0.00" timeLoss="33.82" rerouteNo="1" devices="tripinfo_13 routing_13" vType="DEFAULT_VEHTYPE" speedFactor="1.12" vaporized=""/>
    <tripinfo id="37" depart="12.00" departLane="n40-n29_0" departPos="5.10" departSpeed="0.00" departDelay="0.00" arrival="150.00" arrivalLane="n33-n45_0" arrivalPos="392.80" arrivalSpeed="17.79" duration="138.00" routeLength="1589.53" waitingTime="25.00" waitingCount="2" stopTime="0.00" timeLoss="51.92" rerouteNo="1" devices="tripinfo_37 routing_37" vType="DEFAULT_VEHTYPE" speedFactor="1.18" vaporized=""/>
    <tripinfo id="102" depart="44.00" departLane="n27-n51_0" departPos="5.10" departSpeed="0.00" departDelay="9.00" arrival="152.00" arrivalLane="n57-n43_1" arrivalPos="296.00" arrivalSpeed="14.91" duration="108.00" routeLength="1380.50" waitingTime="0.00" waitingCount="0" stopTime="0.00" timeLoss="17.61" rerouteNo="1" devices="tripinfo_102 routing_102" vType="DEFAULT_VEHTYPE" speedFactor="0.97" vaporized=""/>
    <tripinfo id="117" depart="50.00" departLane="n27-n51_0" departPos="5.10" departSpeed="0.00" departDelay="6.00" arrival="152.00" arrivalLane="n57-n43_0" arrivalPos="296.00" arrivalSpeed="14.86" duration="102.00" routeLength="1380.50" waitingTime="0.00" waitingCount="0" stopTime="0.00" timeLoss="15.10" rerouteNo="1" devices="tripinfo_117 routing_117" vType="DEFAULT_VEHTYPE" speedFactor="1.00" vaporized=""/>
    <tripinfo id="49" depart="17.00" departLane="n40-n29_0" departPos="5.10" departSpeed="0.00" departDelay="1.00" arrival="154.00" arrivalLane="n51-n27_0" arrivalPos="296.00" arrivalSpeed="13.28" duration="137.00" routeLength="993.51" waitingTime="43.00" waitingCount="2" stopTime="0.00" timeLoss="61.37" rerouteNo="1" devices="tripinfo_49 routing_49" vType="DEFAULT_VEHTYPE" speedFactor="0.85" vaporized=""/>
    <tripinfo id="129" depart="57.00" departLane="n43-n57_0" departPos="5.10" departSpeed="0.00" departDelay="5.00" arrival="154.00" arrivalLane="n29-n41_0" arrivalPos="392.80" arrivalSpeed="15.37" duration="97.00" routeLength="1194.06" waitingTime="7.00" waitingCount="1" stopTime="0.00" timeLoss="20.76" rerouteNo="1" devices="tripinfo_129 routing_129" vType="DEFAULT_VEHTYPE" speedFactor="1.01" vaporized=""/>
    <tripinfo id="73" depart="26.00" departLane="n27-n51_0" departPos="5.10" departSpeed="0.00" departDelay="0.00" arrival="155.00" arrivalLane="n1-n21_0" arrivalPos="392.80" arrivalSpeed="16.31" duration="129.00" routeLength="1394.06" waitingTime="10.00" waitingCount="2" stopTime="0.00" timeLoss="44.66" rerouteNo="1" devices="tripinfo_73 routing_73" vType="DEFAULT_VEHTYPE" speedFactor="1.06" vaporized=""/>
    <tripinfo id="96" depart="37.00" departLane="n21-n1_0" departPos="5.10" departSpeed="0.00" departDelay="2.00" arrival="155.00" arrivalLane="n54-n19_1" arrivalPos="296.00" arrivalSpeed="15.75" duration="118.00" routeLength="1193.72" waitingTime="27.00" waitingCount="1" stopTime="0.00" timeLoss="42.64" rerouteNo="1" devices="tripinfo_96 routing_96" vType="DEFAULT_VEHTYPE" speedFactor="1.01" vaporized=""/>
    <tripinfo id="51" depart="21.00" departLane="n43-n57_0" departPos="5.10" departSpeed="0.00" departDelay="3.00" arrival="156.00" arrivalLane="n9-n25_0" arrivalPos="392.80" arrivalSpeed="18.33" duration="135.00" routeLength="1597.08" waitingTime="19.00" waitingCount="4" stopTime="0.00" timeLoss="48.71" rerouteNo="1" devices="tripinfo_51 routing_51" vType="DEFAULT_VEHTYPE" speedFactor="1.17" vaporized=""/>
    <tripinfo id="155" depart="62.00" departLane="n41-n29_0" departPos="5.10" departSpeed="0.00" departDelay="3.00" arrival="156.00" arrivalLane="n51-n27_1" arrivalPos="296.00" arrivalSpeed="16.99" duration="94.00" routeLength="993.72" waitingTime="2.00" waitingCount="1" stopTime="0.00" timeLoss="37.49" rerouteNo="1" devices="tripinfo_155 routing_155" vType="DEFAULT_VEHTYPE" speedFactor="1.12" vaporized=""/>
    <tripinfo id="98" depart="41.00" departLane="n27-n51_0" departPos="5.10" departSpeed="0.00" departDelay="6.00" arrival="157.00" arrivalLane="n1-n21_0" arrivalPos="392.80" arrivalSpeed="17.08" duration="116.00" routeLength="1394.06" waitingTime="9.00" waitingCount="1" stopTime="0.00" timeLoss="35.86" rerouteNo="1" devices="tripinfo_98 routing_98" vType="DEFAULT_VEHTYPE" speedFactor="1.12" vaporized=""/>
    <tripinfo id="119" depart="45.00" departLane="n34-n22_0" departPos="5.10" departSpeed="0.00" departDelay="0.00" arrival="158.00" arrivalLane="n53-n38_1" arrivalPos="296.00" arrivalSpeed="16.10" duration="113.00" routeLength="1393.72" waitingTime="8.00" waitingCount="1" stopTime="0.00" timeLoss="30.27" rerouteNo="1" devices="tripinfo_119 routing_119" vType="DEFAULT_VEHTYPE" speedFactor="1.07" vaporized=""/>
    <tripinfo id="44" depart="15.00" departLane="n40-n29_0" departPos="5.10" departSpeed="0.00" departDelay="0.00" arrival="159.00" arrivalLane="n2-n18_0" arrivalPos="392.80" arrivalSpeed="16.21" duration="144.00" routeLength="1794.69" waitingTime="9.00" waitingCount="2" stopTime="0.00" timeLoss="34.82" rerouteNo="1" devices="tripinfo_44 routing_44" vType="DEFAULT_VEHTYPE" speedFactor="1.04" vaporized=""/>
    <tripinfo id="46" depart="15.00" departLane="n27-n51_0" departPos="5.10" departSpeed="0.00" departDelay="0.00" arrival="160.00" arrivalLane="n32-n44_0" arrivalPos="392.80" arrivalSpeed="15.58" duration="145.00" routeLength="1587.48" waitingTime="21.00" waitingCount="2" stopTime="0.00" timeLoss="44.03" rerouteNo="1" devices="tripinfo_46 routing_46" vType="DEFAULT_VEHTYPE" speedFactor="1.00" vaporized=""/>
    <tripinfo id="140" depart="71.00" departLane="n27-n51_0" departPos="5.10" departSpeed="0.00" departDelay="16.00" arrival="161.00" arrivalLane="n29-n41_0" arrivalPos="392.80" arrivalSpeed="17.19" duration="90.00" routeLength="983.67" waitingTime="15.00" waitingCount="1" stopTime="0.00" timeLoss="33.38" rerouteNo="1" devices="tripinfo_140 routing_140" vType="DEFAULT_VEHTYPE" speedFactor="1.11" vaporized=""/>
    <tripinfo id="163" depart="64.00" departLane="n38-n53_0" departPos="5.10" departSpeed="0.00" departDelay="0.00" arrival="161.00" arrivalLane="n32-n44_0" arrivalPos="392.80" arrivalSpeed="17.17" duration="97.00" routeLength="1195.27" waitingTime="10.00" waitingCount="1" stopTime="0.00" timeLoss="29.65" rerouteNo="1" devices="tripinfo_163 routing_163" vType="DEFAULT_VEHTYPE" speedFactor="1.13" vaporized=""/>
    <tripinfo id="97" depart="40.00" departLane="n38-n53_0" departPos="5.10" departSpeed="0.00" departDelay="5.00" arrival="162.00" arrivalLane="n57-n43_1" arrivalPos="296.00" arrivalSpeed="13.79" duration="122.00" routeLength="1395.60" waitingTime="0.00" waitingCount="0" stopTime="0.00" timeLoss="24.96" rerouteNo="1" devices="tripinfo_97 routing_97" vType="DEFAULT_VEHTYPE" speedFactor="0.91" vaporized=""/>