<?xml version="1.0" encoding="UTF-8"?>

<!-- generated on 09/27/19 09:36:26 by Eclipse SUMO GUI Version 1.1.0
<configuration xmlns:xsi="http://www.w3.org/2001/XMLSchema-instance" xsi:noNamespaceSchemaLocation="http://sumo.dlr.de/xsd/sumoConfiguration.xsd">

    <input>
        <net-file value="SUMOfiles/NetFile.net.xml"/>
        <route-files value="SUMOfiles/TripFile.rou.xml"/>
    </input>

    <output>
        <emission-output value="results/emission1.xml"/>
        <queue-output value="results/queueinfo1.xml"/>
        <tripinfo-output value="results/tripinfo1.xml"/>
    </output>

    <time>
        <begin value="0"/>
    </time>

    <report>
        <verbose value="true"/>
        <no-step-log value="true"/>
    </report>

    <traci_server>
        <remote-port value="8873"/>
    </traci_server>

    <gui_only>
        <gui-settings-file value="SUMOfiles/GuiFile.set.xml"/>
    </gui_only>

</configuration>
-->

<tripinfos xmlns:xsi="http://www.w3.org/2001/XMLSchema-instance" xsi:noNamespaceSchemaLocation="http://sumo.dlr.de/xsd/tripinfo_file.xsd">
</tripinfos>
