<?xml version="1.0" encoding="UTF-8"?>

<!-- generated on Thu 26 Sep 2019 10:09:19 AM CEST by Eclipse SUMO GUI Version 1.2.0
<configuration xmlns:xsi="http://www.w3.org/2001/XMLSchema-instance" xsi:noNamespaceSchemaLocation="http://sumo.dlr.de/xsd/sumoConfiguration.xsd">

    <input>
        <net-file value="SUMOfiles/NetFile.net.xml"/>
        <route-files value="SUMOfiles/TripFile.rou.xml"/>
    </input>

    <output>
        <emission-output value="results/emission1.xml"/>
        <tripinfo-output value="results/tripinfo1.xml"/>
    </output>

    <time>
        <begin value="0"/>
    </time>

    <report>
        <verbose value="true"/>
        <no-step-log value="true"/>
    </report>

    <traci_server>
        <remote-port value="8873"/>
    </traci_server>

    <gui_only>
        <gui-settings-file value="SUMOfiles/GuiFile.set.xml"/>
    </gui_only>

</configuration>
-->

<tripinfos xmlns:xsi="http://www.w3.org/2001/XMLSchema-instance" xsi:noNamespaceSchemaLocation="http://sumo.dlr.de/xsd/tripinfo_file.xsd">
    <tripinfo id="10" depart="4.00" departLane="n41-n29_0" departPos="5.10" departSpeed="0.00" departDelay="0.00" arrival="61.00" arrivalLane="n29-n40_0" arrivalPos="192.80" arrivalSpeed="16.46" duration="57.00" routeLength="394.69" waitingTime="21.00" waitingCount="1" stopTime="0.00" timeLoss="33.03" rerouteNo="0" devices="tripinfo_10 routing_10" vType="DEFAULT_VEHTYPE" speedFactor="1.09" vaporized=""/>
    <tripinfo id="40" depart="18.00" departLane="n18-n2_0" departPos="5.10" departSpeed="0.00" departDelay="0.00" arrival="68.00" arrivalLane="n2-n18_0" arrivalPos="192.80" arrivalSpeed="16.28" duration="50.00" routeLength="385.18" waitingTime="11.00" waitingCount="1" stopTime="0.00" timeLoss="24.39" rerouteNo="0" devices="tripinfo_40 routing_40" vType="DEFAULT_VEHTYPE" speedFactor="1.03" vaporized=""/>
    <tripinfo id="0" depart="0.00" departLane="n36-n24_0" departPos="5.10" departSpeed="0.00" departDelay="0.00" arrival="76.00" arrivalLane="n28-n38_1" arrivalPos="192.80" arrivalSpeed="16.73" duration="76.00" routeLength="793.95" waitingTime="10.00" waitingCount="1" stopTime="0.00" timeLoss="27.23" rerouteNo="1" devices="tripinfo_0 routing_0" vType="DEFAULT_VEHTYPE" speedFactor="1.06" vaporized=""/>
    <tripinfo id="19" depart="11.00" departLane="n45-n33_0" departPos="5.10" departSpeed="0.00" departDelay="0.00" arrival="85.00" arrivalLane="n26-n37_0" arrivalPos="192.80" arrivalSpeed="17.33" duration="74.00" routeLength="789.53" waitingTime="16.00" waitingCount="1" stopTime="0.00" timeLoss="30.76" rerouteNo="1" devices="tripinfo_19 routing_19" vType="DEFAULT_VEHTYPE" speedFactor="1.16" vaporized=""/>
    <tripinfo id="30" depart="16.00" departLane="n36-n24_0" departPos="5.10" departSpeed="0.00" departDelay="0.00" arrival="90.00" arrivalLane="n33-n39_0" arrivalPos="192.80" arrivalSpeed="17.60" duration="74.00" routeLength="994.48" waitingTime="0.00" waitingCount="0" stopTime="0.00" timeLoss="19.00" rerouteNo="1" devices="tripinfo_30 routing_30" vType="DEFAULT_VEHTYPE" speedFactor="1.18" vaporized=""/>
    <tripinfo id="35" depart="17.00" departLane="n35-n22_0" departPos="5.10" departSpeed="0.00" departDelay="0.00" arrival="91.00" arrivalLane="n28-n38_1" arrivalPos="192.80" arrivalSpeed="15.74" duration="74.00" routeLength="993.95" waitingTime="0.00" waitingCount="0" stopTime="0.00" timeLoss="11.28" rerouteNo="1" devices="tripinfo_35 routing_35" vType="DEFAULT_VEHTYPE" speedFactor="1.02" vaporized=""/>
    <tripinfo id="11" depart="5.00" departLane="n35-n22_0" departPos="5.10" departSpeed="0.00" departDelay="0.00" arrival="99.00" arrivalLane="n33-n45_0" arrivalPos="192.80" arrivalSpeed="15.60" duration="94.00" routeLength="1194.69" waitingTime="5.00" waitingCount="1" stopTime="0.00" timeLoss="19.88" rerouteNo="1" devices="tripinfo_11 routing_11" vType="DEFAULT_VEHTYPE" speedFactor="1.03" vaporized=""/>
    <tripinfo id="16" depart="8.00" departLane="n43-n31_0" departPos="5.10" departSpeed="0.00" departDelay="0.00" arrival="108.00" arrivalLane="n32-n44_0" arrivalPos="192.80" arrivalSpeed="13.62" duration="100.00" routeLength="580.96" waitingTime="46.00" waitingCount="1" stopTime="0.00" timeLoss="57.08" rerouteNo="1" devices="tripinfo_16 routing_16" vType="DEFAULT_VEHTYPE" speedFactor="0.88" vaporized=""/>
    <tripinfo id="100" depart="49.00" departLane="n20-n4_0" departPos="5.10" departSpeed="0.00" departDelay="0.00" arrival="109.00" arrivalLane="n22-n34_0" arrivalPos="192.80" arrivalSpeed="17.02" duration="60.00" routeLength="594.48" waitingTime="7.00" waitingCount="1" stopTime="0.00" timeLoss="22.74" rerouteNo="1" devices="tripinfo_100 routing_100" vType="DEFAULT_VEHTYPE" speedFactor="1.07" vaporized=""/>
    <tripinfo id="13" depart="6.00" departLane="n20-n4_0" departPos="5.10" departSpeed="0.00" departDelay="0.00" arrival="110.00" arrivalLane="n28-n38_1" arrivalPos="192.80" arrivalSpeed="17.07" duration="104.00" routeLength="1194.16" waitingTime="20.00" waitingCount="1" stopTime="0.00" timeLoss="36.03" rerouteNo="1" devices="tripinfo_13 routing_13" vType="DEFAULT_VEHTYPE" speedFactor="1.12" vaporized=""/>
    <tripinfo id="109" depart="52.00" departLane="n23-n5_0" departPos="5.10" departSpeed="0.00" departDelay="0.00" arrival="111.00" arrivalLane="n5-n23_0" arrivalPos="192.80" arrivalSpeed="14.09" duration="59.00" routeLength="385.18" waitingTime="20.00" waitingCount="1" stopTime="0.00" timeLoss="32.54" rerouteNo="0" devices="tripinfo_109 routing_109" vType="DEFAULT_VEHTYPE" speedFactor="0.96" vaporized=""/>
    <tripinfo id="103" depart="52.00" departLane="n20-n4_0" departPos="5.10" departSpeed="0.00" departDelay="2.00" arrival="112.00" arrivalLane="n22-n35_0" arrivalPos="192.80" arrivalSpeed="15.20" duration="60.00" routeLength="594.69" waitingTime="5.00" waitingCount="1" stopTime="0.00" timeLoss="19.22" rerouteNo="1" devices="tripinfo_103 routing_103" vType="DEFAULT_VEHTYPE" speedFactor="0.95" vaporized=""/>
    <tripinfo id="36" depart="18.00" departLane="n45-n33_0" departPos="5.10" departSpeed="0.00" departDelay="0.00" arrival="114.00" arrivalLane="n32-n44_0" arrivalPos="192.80" arrivalSpeed="15.28" duration="96.00" routeLength="594.48" waitingTime="34.00" waitingCount="3" stopTime="0.00" timeLoss="55.73" rerouteNo="1" devices="tripinfo_36 routing_36" vType="DEFAULT_VEHTYPE" speedFactor="0.97" vaporized=""/>
    <tripinfo id="70" depart="37.00" departLane="n35-n22_0" departPos="5.10" departSpeed="0.00" departDelay="2.00" arrival="115.00" arrivalLane="n22-n35_0" arrivalPos="192.80" arrivalSpeed="15.16" duration="78.00" routeLength="385.18" waitingTime="38.00" waitingCount="2" stopTime="0.00" timeLoss="52.84" rerouteNo="0" devices="tripinfo_70 routing_70" vType="DEFAULT_VEHTYPE" speedFactor="1.02" vaporized=""/>
    <tripinfo id="8" depart="4.00" departLane="n38-n28_0" departPos="5.10" departSpeed="0.00" departDelay="0.00" arrival="116.00" arrivalLane="n22-n34_0" arrivalPos="192.80" arrivalSpeed="14.33" duration="112.00" routeLength="1380.75" waitingTime="0.00" waitingCount="0" stopTime="0.00" timeLoss="17.22" rerouteNo="2" devices="tripinfo_8 routing_8" vType="DEFAULT_VEHTYPE" speedFactor="0.94" vaporized=""/>
    <tripinfo id="111" depart="55.00" departLane="n23-n5_0" departPos="5.10" departSpeed="0.00" departDelay="1.00" arrival="116.00" arrivalLane="n5-n23_0" arrivalPos="192.80" arrivalSpeed="13.34" duration="61.00" routeLength="385.18" waitingTime="19.00" waitingCount="1" stopTime="0.00" timeLoss="31.24" rerouteNo="0" devices="tripinfo_111 routing_111" vType="DEFAULT_VEHTYPE" speedFactor="0.87" vaporized=""/>
    <tripinfo id="22" depart="11.00" departLane="n27-n13_0" departPos="5.10" departSpeed="0.00" departDelay="0.00" arrival="117.00" arrivalLane="n29-n41_0" arrivalPos="192.80" arrivalSpeed="14.30" duration="106.00" routeLength="980.75" waitingTime="19.00" waitingCount="2" stopTime="0.00" timeLoss="40.85" rerouteNo="2" devices="tripinfo_22 routing_22" vType="DEFAULT_VEHTYPE" speedFactor="0.98" vaporized=""/>
    <tripinfo id="113" depart="54.00" departLane="n40-n29_0" departPos="5.10" departSpeed="0.00" departDelay="0.00" arrival="117.00" arrivalLane="n29-n40_0" arrivalPos="192.80" arrivalSpeed="15.84" duration="63.00" routeLength="385.18" waitingTime="23.00" waitingCount="1" stopTime="0.00" timeLoss="38.25" rerouteNo="0" devices="tripinfo_113 routing_113" vType="DEFAULT_VEHTYPE" speedFactor="1.01" vaporized=""/>
    <tripinfo id="66" depart="35.00" departLane="n42-n30_0" departPos="5.10" departSpeed="0.00" departDelay="2.00" arrival="121.00" arrivalLane="n31-n43_0" arrivalPos="192.80" arrivalSpeed="13.74" duration="86.00" routeLength="968.93" waitingTime="4.00" waitingCount="1" stopTime="0.00" timeLoss="17.91" rerouteNo="2" devices="tripinfo_66 routing_66" vType="DEFAULT_VEHTYPE" speedFactor="0.91" vaporized=""/>
    <tripinfo id="41" depart="22.00" departLane="n20-n4_0" departPos="5.10" departSpeed="0.00" departDelay="3.00" arrival="125.00" arrivalLane="n5-n23_0" arrivalPos="192.80" arrivalSpeed="14.46" duration="103.00" routeLength="1189.53" waitingTime="6.00" waitingCount="1" stopTime="0.00" timeLoss="24.09" rerouteNo="1" devices="tripinfo_41 routing_41" vType="DEFAULT_VEHTYPE" speedFactor="0.96" vaporized=""/>
    <tripinfo id="5" depart="2.00" departLane="n40-n29_0" departPos="5.10" departSpeed="0.00" departDelay="0.00" arrival="129.00" arrivalLane="n33-n45_0" arrivalPos="192.80" arrivalSpeed="12.74" duration="127.00" routeLength="1189.53" waitingTime="20.00" waitingCount="1" stopTime="0.00" timeLoss="36.12" rerouteNo="1" devices="tripinfo_5 routing_5" vType="DEFAULT_VEHTYPE" speedFactor="0.83" vaporized=""/>
    <tripinfo id="125" depart="63.00" departLane="n35-n22_0" departPos="5.10" departSpeed="0.00" departDelay="0.00" arrival="129.00" arrivalLane="n22-n35_0" arrivalPos="192.80" arrivalSpeed="17.31" duration="66.00" routeLength="385.18" waitingTime="18.00" waitingCount="2" stopTime="0.00" timeLoss="43.76" rerouteNo="0" devices="tripinfo_125 routing_125" vType="DEFAULT_VEHTYPE" speedFactor="1.15" vaporized=""/>
    <tripinfo id="157" depart="81.00" departLane="n35-n22_0" departPos="5.10" departSpeed="0.00" departDelay="0.00" arrival="133.00" arrivalLane="n22-n34_0" arrivalPos="192.80" arrivalSpeed="16.48" duration="52.00" routeLength="389.53" waitingTime="0.00" waitingCount="0" stopTime="0.00" timeLoss="28.65" rerouteNo="0" devices="tripinfo_157 routing_157" vType="DEFAULT_VEHTYPE" speedFactor="1.08" vaporized=""/>
    <tripinfo id="163" depart="84.00" departLane="n40-n29_0" departPos="5.10" departSpeed="0.00" departDelay="0.00" arrival="134.00" arrivalLane="n29-n40_0" arrivalPos="192.80" arrivalSpeed="17.88" duration="50.00" routeLength="385.18" waitingTime="1.00" waitingCount="1" stopTime="0.00" timeLoss="26.43" rerouteNo="0" devices="tripinfo_163 routing_163" vType="DEFAULT_VEHTYPE" speedFactor="1.13" vaporized=""/>
    <tripinfo id="188" depart="99.00" departLane="n38-n28_0" departPos="5.10" departSpeed="0.00" departDelay="3.00" arrival="134.00" arrivalLane="n28-n38_1" arrivalPos="192.80" arrivalSpeed="14.49" duration="35.00" routeLength="385.18" waitingTime="0.00" waitingCount="0" stopTime="0.00" timeLoss="9.26" rerouteNo="0" devices="tripinfo_188 routing_188" vType="DEFAULT_VEHTYPE" speedFactor="0.97" vaporized=""/>
    <tripinfo id="161" depart="84.00" departLane="n35-n22_0" departPos="5.10" departSpeed="0.00" departDelay="1.00" arrival="137.00" arrivalLane="n22-n35_0" arrivalPos="192.80" arrivalSpeed="16.26" duration="53.00" routeLength="385.18" waitingTime="0.00" waitingCount="0" stopTime="0.00" timeLoss="29.71" rerouteNo="0" devices="tripinfo_161 routing_161" vType="DEFAULT_VEHTYPE" speedFactor="1.08" vaporized=""/>
    <tripinfo id="112" depart="54.00" departLane="n17-n1_0" departPos="5.10" departSpeed="0.00" departDelay="0.00" arrival="150.00" arrivalLane="n9-n25_0" arrivalPos="192.80" arrivalSpeed="17.54" duration="96.00" routeLength="789.53" waitingTime="37.00" waitingCount="1" stopTime="0.00" timeLoss="50.25" rerouteNo="1" devices="tripinfo_112 routing_112" vType="DEFAULT_VEHTYPE" speedFactor="1.10" vaporized=""/>
    <tripinfo id="44" depart="24.00" departLane="n44-n32_0" departPos="5.10" departSpeed="0.00" departDelay="0.00" arrival="151.00" arrivalLane="n30-n42_0" arrivalPos="192.80" arrivalSpeed="15.73" duration="127.00" routeLength="1183.07" waitingTime="26.00" waitingCount="2" stopTime="0.00" timeLoss="52.95" rerouteNo="2" devices="tripinfo_44 routing_44" vType="DEFAULT_VEHTYPE" speedFactor="1.04" vaporized=""/>
    <tripinfo id="154" depart="80.00" departLane="n44-n32_0" departPos="5.10" departSpeed="0.00" departDelay="0.00" arrival="151.00" arrivalLane="n32-n44_0" arrivalPos="192.80" arrivalSpeed="16.34" duration="71.00" routeLength="385.18" waitingTime="36.00" waitingCount="1" stopTime="0.00" timeLoss="47.15" rerouteNo="0" devices="tripinfo_154 routing_154" vType="DEFAULT_VEHTYPE" speedFactor="1.06" vaporized=""/>
    <tripinfo id="68" depart="34.00" departLane="n18-n2_0" departPos="5.10" departSpeed="0.00" departDelay="0.00" arrival="158.00" arrivalLane="n13-n27_0" arrivalPos="192.80" arrivalSpeed="16.03" duration="124.00" routeLength="1180.75" waitingTime="18.00" waitingCount="2" stopTime="0.00" timeLoss="50.56" rerouteNo="2" devices="tripinfo_68 routing_68" vType="DEFAULT_VEHTYPE" speedFactor="1.04" vaporized=""/>
    <tripinfo id="141" depart="73.00" departLane="n38-n28_0" departPos="5.10" departSpeed="0.00" departDelay="0.00" arrival="158.00" arrivalLane="n32-n44_0" arrivalPos="192.80" arrivalSpeed="17.80" duration="85.00" routeLength="794.15" waitingTime="9.00" waitingCount="2" stopTime="0.00" timeLoss="41.23" rerouteNo="1" devices="tripinfo_141 routing_141" vType="DEFAULT_VEHTYPE" speedFactor="1.16" vaporized=""/>
    <tripinfo id="21" depart="11.00" departLane="n25-n9_0" departPos="5.10" departSpeed="0.00" departDelay="0.00" arrival="161.00" arrivalLane="n3-n19_1" arrivalPos="192.80" arrivalSpeed="15.15" duration="150.00" routeLength="1188.58" waitingTime="39.00" waitingCount="2" stopTime="0.00" timeLoss="74.18" rerouteNo="2" devices="tripinfo_21 routing_21" vType="DEFAULT_VEHTYPE" speedFactor="1.01" vaporized=""/>
    <tripinfo id="3" depart="1.00" departLane="n38-n28_0" departPos="5.10" departSpeed="0.00" departDelay="0.00" arrival="162.00" arrivalLane="n31-n43_1" arrivalPos="192.80" arrivalSpeed="16.09" duration="161.00" routeLength="988.04" waitingTime="65.00" waitingCount="4" stopTime="0.00" timeLoss="101.73" rerouteNo="2" devices="tripinfo_3 routing_3" vType="DEFAULT_VEHTYPE" speedFactor="1.08" vaporized=""/>
    <tripinfo id="14" depart="6.00" departLane="n23-n5_0" departPos="5.10" departSpeed="0.00" departDelay="0.00" arrival="165.00" arrivalLane="n30-n42_0" arrivalPos="192.80" arrivalSpeed="15.65" duration="159.00" routeLength="1183.95" waitingTime="53.00" waitingCount="3" stopTime="0.00" timeLoss="81.46" rerouteNo="2" devices="tripinfo_14 routing_14" vType="DEFAULT_VEHTYPE" speedFactor="0.99" vaporized=""/>
    <tripinfo id="90" depart="45.00" departLane="n20-n4_0" departPos="5.10" departSpeed="0.00" departDelay="0.00" arrival="165.00" arrivalLane="n5-n23_0" arrivalPos="192.80" arrivalSpeed="15.98" duration="120.00" routeLength="1183.95" waitingTime="8.00" waitingCount="2" stopTime="0.00" timeLoss="44.94" rerouteNo="2" devices="tripinfo_90 routing_90" vType="DEFAULT_VEHTYPE" speedFactor="1.02" vaporized=""/>
    <tripinfo id="108" depart="52.00" departLane="n34-n22_0" departPos="5.10" departSpeed="0.00" departDelay="0.00" arrival="166.00" arrivalLane="n28-n38_1" arrivalPos="192.80" arrivalSpeed="16.38" duration="114.00" routeLength="994.16" waitingTime="41.00" waitingCount="1" stopTime="0.00" timeLoss="54.37" rerouteNo="1" devices="tripinfo_108 routing_108" vType="DEFAULT_VEHTYPE" speedFactor="1.06" vaporized=""/>
    <tripinfo id="45" depart="24.00" departLane="n27-n13_0" departPos="5.10" departSpeed="0.00" departDelay="0.00" arrival="167.00" arrivalLane="n30-n42_0" arrivalPos="192.80" arrivalSpeed="16.26" duration="143.00" routeLength="1183.41" waitingTime="43.00" waitingCount="2" stopTime="0.00" timeLoss="72.11" rerouteNo="2" devices="tripinfo_45 routing_45" vType="DEFAULT_VEHTYPE" speedFactor="1.09" vaporized=""/>
    <tripinfo id="7" depart="6.00" departLane="n37-n26_0" departPos="5.10" departSpeed="0.00" departDelay="3.00" arrival="169.00" arrivalLane="n1-n17_0" arrivalPos="192.80" arrivalSpeed="14.17" duration="163.00" routeLength="1589.53" waitingTime="25.00" waitingCount="3" stopTime="0.00" timeLoss="49.87" rerouteNo="1" devices="tripinfo_7 routing_7" vType="DEFAULT_VEHTYPE" speedFactor="0.89" vaporized=""/>
    <tripinfo id="153" depart="79.00" departLane="n19-n3_0" departPos="5.10" departSpeed="0.00" departDelay="0.00" arrival="170.00" arrivalLane="n24-n36_0" arrivalPos="192.80" arrivalSpeed="13.84" duration="91.00" routeLength="988.57" waitingTime="1.00" waitingCount="1" stopTime="0.00" timeLoss="22.16" rerouteNo="2" devices="tripinfo_153 routing_153" vType="DEFAULT_VEHTYPE" speedFactor="0.93" vaporized=""/>
    <tripinfo id="24" depart="12.00" departLane="n38-n28_0" departPos="5.10" departSpeed="0.00" departDelay="0.00" arrival="172.00" arrivalLane="n4-n20_0" arrivalPos="192.80" arrivalSpeed="12.06" duration="160.00" routeLength="1180.75" waitingTime="44.00" waitingCount="2" stopTime="0.00" timeLoss="66.63" rerouteNo="2" devices="tripinfo_24 routing_24" vType="DEFAULT_VEHTYPE" speedFactor="0.83" vaporized=""/>
    <tripinfo id="15" depart="7.00" departLane="n39-n33_0" departPos="5.10" departSpeed="0.00" departDelay="0.00" arrival="173.00" arrivalLane="n4-n20_0" arrivalPos="192.80" arrivalSpeed="13.08" duration="166.00" routeLength="1383.95" waitingTime="31.00" waitingCount="3" stopTime="0.00" timeLoss="70.13" rerouteNo="2" devices="tripinfo_15 routing_15" vType="DEFAULT_VEHTYPE" speedFactor="0.93" vaporized=""/>
    <tripinfo id="132" depart="66.00" departLane="n37-n26_0" departPos="5.10" departSpeed="0.00" departDelay="0.00" arrival="174.00" arrivalLane="n32-n44_0" arrivalPos="192.80" arrivalSpeed="14.69" duration="108.00" routeLength="994.69" waitingTime="12.00" waitingCount="2" stopTime="0.00" timeLoss="41.30" rerouteNo="1" devices="tripinfo_132 routing_132" vType="DEFAULT_VEHTYPE" speedFactor="0.96" vaporized=""/>
    <tripinfo id="182" depart="93.00" departLane="n38-n28_0" departPos="5.10" departSpeed="0.00" departDelay="0.00" arrival="176.00" arrivalLane="n24-n36_0" arrivalPos="192.80" arrivalSpeed="15.30" duration="83.00" routeLength="780.96" waitingTime="11.00" waitingCount="1" stopTime="0.00" timeLoss="33.82" rerouteNo="1" devices="tripinfo_182 routing_182" vType="DEFAULT_VEHTYPE" speedFactor="1.03" vaporized=""/>
    <tripinfo id="37" depart="19.00" departLane="n20-n4_0" departPos="5.10" departSpeed="0.00" departDelay="1.00" arrival="177.00" arrivalLane="n33-n45_0" arrivalPos="192.80" arrivalSpeed="18.43" duration="158.00" routeLength="1389.32" waitingTime="48.00" waitingCount="3" stopTime="0.00" timeLoss="82.14" rerouteNo="2" devices="tripinfo_37 routing_37" vType="DEFAULT_VEHTYPE" speedFactor="1.18" vaporized=""/>
    <tripinfo id="54" depart="28.00" departLane="n38-n28_0" departPos="5.10" departSpeed="0.00" departDelay="0.00" arrival="177.00" arrivalLane="n22-n34_0" arrivalPos="192.80" arrivalSpeed="15.96" duration="149.00" routeLength="986.33" waitingTime="69.00" waitingCount="2" stopTime="0.00" timeLoss="86.90" rerouteNo="1" devices="tripinfo_54 routing_54" vType="DEFAULT_VEHTYPE" speedFactor="1.00" vaporized=""/>
    <tripinfo id="53" depart="27.00" departLane="n42-n30_0" departPos="5.10" departSpeed="0.00" departDelay="0.00" arrival="178.00" arrivalLane="n1-n21_0" arrivalPos="192.80" arrivalSpeed="16.26" duration="151.00" routeLength="1385.38" waitingTime="39.00" waitingCount="2" stopTime="0.00" timeLoss="69.49" rerouteNo="2" devices="tripinfo_53 routing_53" vType="DEFAULT_VEHTYPE" speedFactor="1.10" vaporized=""/>
    <tripinfo id="190" depart="97.00" departLane="n25-n9_0" departPos="5.10" departSpeed="0.00" departDelay="0.00" arrival="178.00" arrivalLane="n29-n41_0" arrivalPos="192.80" arrivalSpeed="13.49" duration="81.00" routeLength="789.53" waitingTime="7.00" waitingCount="1" stopTime="0.00" timeLoss="25.47" rerouteNo="1" devices="tripinfo_190 routing_190" vType="DEFAULT_VEHTYPE" speedFactor="0.90" vaporized=""/>
    <tripinfo id="64" depart="31.00" departLane="n37-n26_0" departPos="5.10" departSpeed="0.00" departDelay="0.00" arrival="185.00" arrivalLane="n31-n43_1" arrivalPos="192.80" arrivalSpeed="14.78" duration="154.00" routeLength="1188.58" waitingTime="49.00" waitingCount="2" stopTime="0.00" timeLoss="72.65" rerouteNo="2" devices="tripinfo_64 routing_64" vType="DEFAULT_VEHTYPE" speedFactor="0.94" vaporized=""/>
    <tripinfo id="110" depart="53.00" departLane="n27-n13_0" departPos="5.10" departSpeed="0.00" departDelay="0.00" arrival="189.00" arrivalLane="n1-n21_0" arrivalPos="192.80" arrivalSpeed="13.70" duration="136.00" routeLength="993.94" waitingTime="40.00" waitingCount="2" stopTime="0.00" timeLoss="66.88" rerouteNo="1" devices="tripinfo_110 routing_110" vType="DEFAULT_VEHTYPE" speedFactor="0.93" vaporized=""/>
    <tripinfo id="150" depart="77.00" departLane="n21-n1_0" departPos="5.10" departSpeed="0.00" departDelay="0.00" arrival="189.00" arrivalLane="n9-n25_0" arrivalPos="192.80" arrivalSpeed="14.52" duration="112.00" routeLength="784.16" waitingTime="35.00" waitingCount="2" stopTime="0.00" timeLoss="59.45" rerouteNo="1" devices="tripinfo_150 routing_150" vType="DEFAULT_VEHTYPE" speedFactor="0.96" vaporized=""/>
    <tripinfo id="136" depart="71.00" departLane="n45-n33_0" departPos="5.10" departSpeed="0.00" departDelay="0.00" arrival="191.00" arrivalLane="n22-n35_0" arrivalPos="192.80" arrivalSpeed="17.06" duration="120.00" routeLength="1189.53" waitingTime="32.00" waitingCount="1" stopTime="0.00" timeLoss="52.20" rerouteNo="1" devices="tripinfo_136 routing_136" vType="DEFAULT_VEHTYPE" speedFactor="1.12" vaporized=""/>
    <tripinfo id="168" depart="87.00" departLane="n27-n13_0" departPos="5.10" departSpeed="0.00" departDelay="0.00" arrival="191.00" arrivalLane="n1-n21_0" arrivalPos="192.80" arrivalSpeed="15.03" duration="104.00" routeLength="993.94" waitingTime="17.00" waitingCount="1" stopTime="0.00" timeLoss="38.96" rerouteNo="1" devices="tripinfo_168 routing_168" vType="DEFAULT_VEHTYPE" speedFactor="0.98" vaporized=""/>
    <tripinfo id="67" depart="33.00" departLane="n20-n4_0" departPos="5.10" departSpeed="0.00" departDelay="0.00" arrival="192.00" arrivalLane="n9-n25_0" arrivalPos="192.80" arrivalSpeed="14.43" duration="159.00" routeLength="1383.95" waitingTime="12.00" waitingCount="3" stopTime="0.00" timeLoss="61.72" rerouteNo="2" devices="tripinfo_67 routing_67" vType="DEFAULT_VEHTYPE" speedFactor="0.91" vaporized=""/>
    <tripinfo id="9" depart="5.00" departLane="n40-n29_0" departPos="5.10" departSpeed="0.00" departDelay="1.00" arrival="195.00" arrivalLane="n24-n36_0" arrivalPos="192.80" arrivalSpeed="13.14" duration="190.00" routeLength="1789.32" waitingTime="26.00" waitingCount="2" stopTime="0.00" timeLoss="57.14" rerouteNo="2" devices="tripinfo_9 routing_9" vType="DEFAULT_VEHTYPE" speedFactor="0.86" vaporized=""/>
    <tripinfo id="31" depart="16.00" departLane="n23-n5_0" departPos="5.10" departSpeed="0.00" departDelay="0.00" arrival="195.00" arrivalLane="n28-n38_0" arrivalPos="192.80" arrivalSpeed="17.52" duration="179.00" routeLength="1588.79" waitingTime="58.00" waitingCount="3" stopTime="0.00" timeLoss="91.09" rerouteNo="2" devices="tripinfo_31 routing_31" vType="DEFAULT_VEHTYPE" speedFactor="1.15" vaporized=""/>
    <tripinfo id="1" depart="1.00" departLane="n39-n33_0" departPos="5.10" departSpeed="0.00" departDelay="0.00" arrival="197.00" arrivalLane="n29-n41_0" arrivalPos="192.80" arrivalSpeed="13.88" duration="196.00" routeLength="1577.71" waitingTime="62.00" waitingCount="2" stopTime="0.00" timeLoss="87.44" rerouteNo="2" devices="tripinfo_1 routing_1" vType="DEFAULT_VEHTYPE" speedFactor="0.94" vaporized=""/>
    <tripinfo id="17" depart="8.00" departLane="n18-n2_0" departPos="5.10" departSpeed="0.00" departDelay="0.00" arrival="197.00" arrivalLane="n28-n38_1" arrivalPos="192.80" arrivalSpeed="14.78" duration="189.00" routeLength="1588.58" waitingTime="46.00" waitingCount="3" stopTime="0.00" timeLoss="80.50" rerouteNo="2" devices="tripinfo_17 routing_17" vType="DEFAULT_VEHTYPE" speedFactor="0.94" vaporized=""/>
    <tripinfo id="27" depart="14.00" departLane="n18-n2_0" departPos="5.10" departSpeed="0.00" departDelay="0.00" arrival="197.00" arrivalLane="n26-n37_0" arrivalPos="192.80" arrivalSpeed="14.75" duration="183.00" routeLength="1389.11" waitingTime="53.00" waitingCount="3" stopTime="0.00" timeLoss="87.83" rerouteNo="2" devices="tripinfo_27 routing_27" vType="DEFAULT_VEHTYPE" speedFactor="0.95" vaporized=""/>
    <tripinfo id="97" depart="48.00" departLane="n19-n3_0" departPos="5.10" departSpeed="0.00" departDelay="0.00" arrival="197.00" arrivalLane="n24-n36_0" arrivalPos="192.80" arrivalSpeed="14.04" duration="149.00" routeLength="994.15" waitingTime="59.00" waitingCount="2" stopTime="0.00" timeLoss="79.22" rerouteNo="1" devices="tripinfo_97 routing_97" vType="DEFAULT_VEHTYPE" speedFactor="0.91" vaporized=""/>
    <tripinfo id="122" depart="59.00" departLane="n17-n1_0" departPos="5.10" departSpeed="0.00" departDelay="0.00" arrival="197.00" arrivalLane="n9-n25_0" arrivalPos="192.80" arrivalSpeed="16.11" duration="138.00" routeLength="1183.95" waitingTime="36.00" waitingCount="3" stopTime="0.00" timeLoss="64.28" rerouteNo="2" devices="tripinfo_122 routing_122" vType="DEFAULT_VEHTYPE" speedFactor="1.03" vaporized=""/>
    <tripinfo id="18" depart="9.00" departLane="n36-n24_0" departPos="5.10" departSpeed="0.00" departDelay="0.00" arrival="198.00" arrivalLane="n1-n17_0" arrivalPos="192.80" arrivalSpeed="14.30" duration="189.00" routeLength="1383.95" waitingTime="64.00" waitingCount="3" stopTime="0.00" timeLoss="94.12" rerouteNo="2" devices="tripinfo_18 routing_18" vType="DEFAULT_VEHTYPE" speedFactor="0.94" vaporized=""/>
    <tripinfo id="48" depart="25.00" departLane="n40-n29_0" departPos="5.10" departSpeed="0.00" departDelay="0.00" arrival="198.00" arrivalLane="n32-n44_0" arrivalPos="192.80" arrivalSpeed="13.61" duration="173.00" routeLength="989.53" waitingTime="77.00" waitingCount="3" stopTime="0.00" timeLoss="101.40" rerouteNo="1" devices="tripinfo_48 routing_48" vType="DEFAULT_VEHTYPE" speedFactor="0.88" vaporized=""/>
    <tripinfo id="83" depart="42.00" departLane="n45-n33_0" departPos="5.10" departSpeed="0.00" departDelay="0.00" arrival="198.00" arrivalLane="n26-n37_0" arrivalPos="192.80" arrivalSpeed="15.33" duration="156.00" routeLength="1183.95" waitingTime="40.00" waitingCount="3" stopTime="0.00" timeLoss="77.50" rerouteNo="2" devices="tripinfo_83 routing_83" vType="DEFAULT_VEHTYPE" speedFactor="0.97" vaporized=""/>
    <tripinfo id="171" depart="88.00" departLane="n25-n9_0" departPos="5.10" departSpeed="0.00" departDelay="0.00" arrival="198.00" arrivalLane="n13-n27_0" arrivalPos="192.80" arrivalSpeed="13.23" duration="110.00" routeLength="980.96" waitingTime="19.00" waitingCount="1" stopTime="0.00" timeLoss="39.29" rerouteNo="2" devices="tripinfo_171 routing_171" vType="DEFAULT_VEHTYPE" speedFactor="0.90" vaporized=""/>
    <tripinfo id="2" depart="1.00" departLane="n27-n13_0" departPos="5.10" departSpeed="0.00" departDelay="0.00" arrival="199.00" arrivalLane="n24-n36_0" arrivalPos="192.80" arrivalSpeed="15.43" duration="198.00" routeLength="1583.20" waitingTime="56.00" waitingCount="4" stopTime="0.00" timeLoss="95.59" rerouteNo="2" devices="tripinfo_2 routing_2" vType="DEFAULT_VEHTYPE" speedFactor="1.01" vaporized=""/>
    <tripinfo id="25" depart="13.00" departLane="n37-n26_0" departPos="5.10" departSpeed="0.00" departDelay="0.00" arrival="199.00" arrivalLane="n22-n34_0" arrivalPos="192.80" arrivalSpeed="13.16" duration="186.00" routeLength="1178.37" waitingTime="60.00" waitingCount="5" stopTime="0.00" timeLoss="97.93" rerouteNo="2" devices="tripinfo_25 routing_25" vType="DEFAULT_VEHTYPE" speedFactor="0.87" vaporized=""/>
    <tripinfo id="46" depart="24.00" departLane="n19-n3_0" departPos="5.10" departSpeed="0.00" departDelay="0.00" arrival="200.00" arrivalLane="n22-n34_0" arrivalPos="192.80" arrivalSpeed="15.42" duration="176.00" routeLength="1188.36" waitingTime="59.00" waitingCount="5" stopTime="0.00" timeLoss="98.37" rerouteNo="2" devices="tripinfo_46 routing_46" vType="DEFAULT_VEHTYPE" speedFactor="1.00" vaporized=""/>
    <tripinfo id="61" depart="30.00" departLane="n18-n2_0" departPos="5.10" departSpeed="0.00" departDelay="0.00" arrival="200.00" arrivalLane="n26-n37_0" arrivalPos="192.80" arrivalSpeed="16.89" duration="170.00" routeLength="1379.79" waitingTime="28.00" waitingCount="5" stopTime="0.00" timeLoss="89.22" rerouteNo="2" devices="tripinfo_61 routing_61" vType="DEFAULT_VEHTYPE" speedFactor="1.12" vaporized=""/>
    <tripinfo id="69" depart="34.00" departLane="n35-n22_0" departPos="5.10" departSpeed="0.00" departDelay="0.00" arrival="200.00" arrivalLane="n24-n36_0" arrivalPos="192.80" arrivalSpeed="15.36" duration="166.00" routeLength="994.48" waitingTime="69.00" waitingCount="4" stopTime="0.00" timeLoss="103.53" rerouteNo="2" devices="tripinfo_69 routing_69" vType="DEFAULT_VEHTYPE" speedFactor="1.02" vaporized=""/>
    <tripinfo id="71" depart="35.00" departLane="n38-n28_0" departPos="5.10" departSpeed="0.00" departDelay="0.00" arrival="200.00" arrivalLane="n33-n45_0" arrivalPos="192.80" arrivalSpeed="14.87" duration="165.00" routeLength="988.57" waitingTime="70.00" waitingCount="4" stopTime="0.00" timeLoss="98.25" rerouteNo="2" devices="tripinfo_71 routing_71" vType="DEFAULT_VEHTYPE" speedFactor="0.97" vaporized=""/>